<?xml version="1.0" encoding="UTF-8"?>

<!-- generated on Monday 23 January 2017 12:08:13 AM IST by SUMO gui Version 0.19.0
<?xml version="1.0" encoding="UTF-8"?>

<configuration xmlns:xsi="http://www.w3.org/2001/XMLSchema-instance" xsi:noNamespaceSchemaLocation="http://sumo-sim.org/xsd/sumo-gui.exeConfiguration.xsd">

    <input>
        <net-file value="testdata/sim.net.xml"/>
        <route-files value="testdata/sim.rou.xml"/>
        <additional-files value="testdata/sim.det.xml"/>
    </input>

    <output>
        <tripinfo-output value="simple-simtripinfo.xml"/>
        <save-state.prefix value="testdata/state"/>
    </output>

    <time>
        <begin value="0"/>
    </time>

    <report>
        <verbose value="true"/>
        <no-step-log value="true"/>
    </report>

    <traci_server>
        <remote-port value="42123"/>
    </traci_server>

    <gui_only>
        <gui-settings-file value="testdata/sim.settings.xml"/>
    </gui_only>

</configuration>
-->

<tripinfos>
    <tripinfo id="vid#101#3#8" depart="1.00" departLane="3to5_0" departPos="0.00" departSpeed="0.00" departDelay="1.00" arrival="35.00" arrivalLane="5to8_0" arrivalPos="100.00" arrivalSpeed="9.86" duration="34.00" routeLength="200.00" waitSteps="0" rerouteNo="0" devices="tripinfo_vid#101#3#8" vType="vtype1" vaporized=""/>
    <tripinfo id="vid#118#3#8" depart="4.00" departLane="3to5_0" departPos="0.00" departSpeed="0.00" departDelay="3.00" arrival="38.00" arrivalLane="5to8_0" arrivalPos="100.00" arrivalSpeed="9.64" duration="34.00" routeLength="200.00" waitSteps="0" rerouteNo="0" devices="tripinfo_vid#118#3#8" vType="vtype1" vaporized=""/>
    <tripinfo id="vid#124#3#8" depart="7.00" departLane="3to5_0" departPos="0.00" departSpeed="0.00" departDelay="5.00" arrival="40.00" arrivalLane="5to8_0" arrivalPos="100.00" arrivalSpeed="9.91" duration="33.00" routeLength="200.00" waitSteps="0" rerouteNo="0" devices="tripinfo_vid#124#3#8" vType="vtype1" vaporized=""/>
    <tripinfo id="vid#110#3#9" depart="8.00" departLane="3to6_0" departPos="0.00" departSpeed="0.00" departDelay="7.00" arrival="41.00" arrivalLane="6to9_0" arrivalPos="100.00" arrivalSpeed="7.50" duration="33.00" routeLength="200.00" waitSteps="0" rerouteNo="0" devices="tripinfo_vid#110#3#9" vType="vtype1" vaporized=""/>
    <tripinfo id="vid#3#3#8" depart="11.00" departLane="3to5_0" departPos="2.10" departSpeed="0.00" departDelay="8.00" arrival="45.00" arrivalLane="5to8_0" arrivalPos="100.00" arrivalSpeed="9.76" duration="34.00" routeLength="197.90" waitSteps="1" rerouteNo="0" devices="tripinfo_vid#3#3#8" vType="vtype1" vaporized=""/>
    <tripinfo id="vid#135#3#8" depart="14.00" departLane="3to5_0" departPos="0.00" departSpeed="0.00" departDelay="11.00" arrival="47.00" arrivalLane="5to8_0" arrivalPos="100.00" arrivalSpeed="9.86" duration="33.00" routeLength="200.00" waitSteps="0" rerouteNo="0" devices="tripinfo_vid#135#3#8" vType="vtype1" vaporized=""/>
    <tripinfo id="vid#100#3#10" depart="1.00" departLane="3to6_0" departPos="0.00" departSpeed="0.00" departDelay="1.00" arrival="47.00" arrivalLane="9to10_0" arrivalPos="100.00" arrivalSpeed="9.90" duration="46.00" routeLength="300.00" waitSteps="0" rerouteNo="0" devices="tripinfo_vid#100#3#10" vType="vtype1" vaporized=""/>
    <tripinfo id="vid#105#1#10" depart="1.00" departLane="1to4_0" departPos="0.00" departSpeed="0.00" departDelay="1.00" arrival="47.00" arrivalLane="7to10_0" arrivalPos="100.00" arrivalSpeed="9.98" duration="46.00" routeLength="300.00" waitSteps="0" rerouteNo="0" devices="tripinfo_vid#105#1#10" vType="vtype1" vaporized=""/>
    <tripinfo id="vid#140#3#8" depart="17.00" departLane="3to5_0" departPos="0.00" departSpeed="0.00" departDelay="13.00" arrival="49.00" arrivalLane="5to8_0" arrivalPos="100.00" arrivalSpeed="9.90" duration="32.00" routeLength="200.00" waitSteps="0" rerouteNo="0" devices="tripinfo_vid#140#3#8" vType="vtype1" vaporized=""/>
    <tripinfo id="vid#143#3#8" depart="20.00" departLane="3to5_0" departPos="0.00" departSpeed="0.00" departDelay="16.00" arrival="51.00" arrivalLane="5to8_0" arrivalPos="100.00" arrivalSpeed="9.82" duration="31.00" routeLength="200.00" waitSteps="0" rerouteNo="0" devices="tripinfo_vid#143#3#8" vType="vtype1" vaporized=""/>
    <tripinfo id="vid#107#3#10" depart="4.00" departLane="3to6_0" departPos="0.00" departSpeed="0.00" departDelay="4.00" arrival="52.00" arrivalLane="9to10_0" arrivalPos="100.00" arrivalSpeed="9.70" duration="48.00" routeLength="300.00" waitSteps="0" rerouteNo="0" devices="tripinfo_vid#107#3#10" vType="vtype1" vaporized=""/>
    <tripinfo id="vid#109#1#8" depart="4.00" departLane="1to4_0" departPos="0.00" departSpeed="0.00" departDelay="4.00" arrival="52.00" arrivalLane="7to8_0" arrivalPos="100.00" arrivalSpeed="9.94" duration="48.00" routeLength="300.00" waitSteps="0" rerouteNo="0" devices="tripinfo_vid#109#1#8" vType="vtype1" vaporized=""/>
    <tripinfo id="vid#1#1#8" depart="8.00" departLane="1to4_0" departPos="2.10" departSpeed="0.00" departDelay="7.00" arrival="55.00" arrivalLane="7to8_0" arrivalPos="100.00" arrivalSpeed="9.77" duration="47.00" routeLength="297.90" waitSteps="0" rerouteNo="0" devices="tripinfo_vid#1#1#8" vType="vtype1" vaporized=""/>
    <tripinfo id="vid#155#3#8" depart="23.00" departLane="3to5_0" departPos="0.00" departSpeed="0.00" departDelay="18.00" arrival="56.00" arrivalLane="5to8_0" arrivalPos="100.00" arrivalSpeed="9.68" duration="33.00" routeLength="200.00" waitSteps="0" rerouteNo="0" devices="tripinfo_vid#155#3#8" vType="vtype1" vaporized=""/>
    <tripinfo id="vid#147#3#9" depart="25.00" departLane="3to6_0" departPos="0.00" departSpeed="0.00" departDelay="21.00" arrival="58.00" arrivalLane="6to9_0" arrivalPos="100.00" arrivalSpeed="4.46" duration="33.00" routeLength="200.00" waitSteps="0" rerouteNo="0" devices="tripinfo_vid#147#3#9" vType="vtype1" vaporized=""/>
    <tripinfo id="vid#2#3#10" depart="12.00" departLane="3to6_0" departPos="2.10" departSpeed="0.00" departDelay="10.00" arrival="58.00" arrivalLane="9to10_0" arrivalPos="100.00" arrivalSpeed="9.82" duration="46.00" routeLength="297.90" waitSteps="0" rerouteNo="0" devices="tripinfo_vid#2#3#10" vType="vtype1" vaporized=""/>
    <tripinfo id="vid#112#1#9" depart="10.00" departLane="1to4_0" departPos="0.00" departSpeed="0.00" departDelay="9.00" arrival="59.00" arrivalLane="7to9_0" arrivalPos="100.00" arrivalSpeed="9.84" duration="49.00" routeLength="300.00" waitSteps="0" rerouteNo="0" devices="tripinfo_vid#112#1#9" vType="vtype1" vaporized=""/>
    <tripinfo id="vid#127#3#10" depart="14.00" departLane="3to6_0" departPos="0.00" departSpeed="0.00" departDelay="12.00" arrival="61.00" arrivalLane="9to10_0" arrivalPos="100.00" arrivalSpeed="9.86" duration="47.00" routeLength="300.00" waitSteps="0" rerouteNo="0" devices="tripinfo_vid#127#3#10" vType="vtype1" vaporized=""/>
    <tripinfo id="vid#165#3#8" depart="27.00" departLane="3to5_0" departPos="0.00" departSpeed="0.00" departDelay="21.00" arrival="62.00" arrivalLane="5to8_0" arrivalPos="100.00" arrivalSpeed="9.90" duration="35.00" routeLength="200.00" waitSteps="0" rerouteNo="0" devices="tripinfo_vid#165#3#8" vType="vtype1" vaporized=""/>
    <tripinfo id="vid#150#3#9" depart="28.00" departLane="3to6_0" departPos="0.00" departSpeed="0.00" departDelay="23.00" arrival="63.00" arrivalLane="6to9_0" arrivalPos="100.00" arrivalSpeed="9.63" duration="35.00" routeLength="200.00" waitSteps="0" rerouteNo="0" devices="tripinfo_vid#150#3#9" vType="vtype1" vaporized=""/>
    <tripinfo id="vid#166#3#8" depart="30.00" departLane="3to5_0" departPos="0.00" departSpeed="0.00" departDelay="24.00" arrival="63.00" arrivalLane="5to8_0" arrivalPos="100.00" arrivalSpeed="9.67" duration="33.00" routeLength="200.00" waitSteps="0" rerouteNo="0" devices="tripinfo_vid#166#3#8" vType="vtype1" vaporized=""/>
    <tripinfo id="vid#114#1#10" depart="13.00" departLane="1to4_0" departPos="0.00" departSpeed="0.00" departDelay="12.00" arrival="63.00" arrivalLane="7to10_0" arrivalPos="100.00" arrivalSpeed="9.97" duration="50.00" routeLength="300.00" waitSteps="0" rerouteNo="0" devices="tripinfo_vid#114#1#10" vType="vtype1" vaporized=""/>
    <tripinfo id="vid#130#3#10" depart="18.00" departLane="3to6_0" departPos="0.00" departSpeed="0.00" departDelay="15.00" arrival="65.00" arrivalLane="9to10_0" arrivalPos="100.00" arrivalSpeed="9.94" duration="47.00" routeLength="300.00" waitSteps="0" rerouteNo="0" devices="tripinfo_vid#130#3#10" vType="vtype1" vaporized=""/>
    <tripinfo id="vid#115#1#8" depart="17.00" departLane="1to4_0" departPos="0.00" departSpeed="0.00" departDelay="16.00" arrival="65.00" arrivalLane="7to8_0" arrivalPos="100.00" arrivalSpeed="9.64" duration="48.00" routeLength="300.00" waitSteps="0" rerouteNo="0" devices="tripinfo_vid#115#1#8" vType="vtype1" vaporized=""/>
    <tripinfo id="vid#151#3#9" depart="32.00" departLane="3to6_0" departPos="0.00" departSpeed="0.00" departDelay="27.00" arrival="66.00" arrivalLane="6to9_0" arrivalPos="100.00" arrivalSpeed="9.82" duration="34.00" routeLength="200.00" waitSteps="0" rerouteNo="0" devices="tripinfo_vid#151#3#9" vType="vtype1" vaporized=""/>
    <tripinfo id="vid#170#3#8" depart="34.00" departLane="3to5_0" departPos="0.00" departSpeed="0.00" departDelay="27.00" arrival="66.00" arrivalLane="5to8_0" arrivalPos="100.00" arrivalSpeed="9.61" duration="32.00" routeLength="200.00" waitSteps="0" rerouteNo="0" devices="tripinfo_vid#170#3#8" vType="vtype1" vaporized=""/>
    <tripinfo id="vid#117#1#8" depart="20.00" departLane="1to4_0" departPos="0.00" departSpeed="0.00" departDelay="19.00" arrival="67.00" arrivalLane="7to8_0" arrivalPos="100.00" arrivalSpeed="9.89" duration="47.00" routeLength="300.00" waitSteps="0" rerouteNo="0" devices="tripinfo_vid#117#1#8" vType="vtype1" vaporized=""/>
    <tripinfo id="vid#132#3#10" depart="21.00" departLane="3to6_0" departPos="0.00" departSpeed="0.00" departDelay="18.00" arrival="70.00" arrivalLane="9to10_0" arrivalPos="100.00" arrivalSpeed="9.74" duration="49.00" routeLength="300.00" waitSteps="0" rerouteNo="0" devices="tripinfo_vid#132#3#10" vType="vtype1" vaporized=""/>
    <tripinfo id="vid#122#1#10" depart="23.00" departLane="1to4_0" departPos="0.00" departSpeed="0.00" departDelay="21.00" arrival="70.00" arrivalLane="7to10_0" arrivalPos="100.00" arrivalSpeed="9.96" duration="47.00" routeLength="300.00" waitSteps="0" rerouteNo="0" devices="tripinfo_vid#122#1#10" vType="vtype1" vaporized=""/>
    <tripinfo id="vid#173#3#8" depart="38.00" departLane="3to5_0" departPos="0.00" departSpeed="0.00" departDelay="31.00" arrival="72.00" arrivalLane="5to8_0" arrivalPos="100.00" arrivalSpeed="9.69" duration="34.00" routeLength="200.00" waitSteps="0" rerouteNo="0" devices="tripinfo_vid#173#3#8" vType="vtype1" vaporized=""/>
    <tripinfo id="vid#176#3#8" depart="41.00" departLane="3to5_0" departPos="0.00" departSpeed="0.00" departDelay="34.00" arrival="75.00" arrivalLane="5to8_0" arrivalPos="100.00" arrivalSpeed="9.96" duration="34.00" routeLength="200.00" waitSteps="0" rerouteNo="0" devices="tripinfo_vid#176#3#8" vType="vtype1" vaporized=""/>
    <tripinfo id="vid#125#1#10" depart="29.00" departLane="1to4_0" departPos="0.00" departSpeed="0.00" departDelay="27.00" arrival="75.00" arrivalLane="7to10_0" arrivalPos="100.00" arrivalSpeed="9.87" duration="46.00" routeLength="300.00" waitSteps="0" rerouteNo="0" devices="tripinfo_vid#125#1#10" vType="vtype1" vaporized=""/>
    <tripinfo id="vid#123#1#9" depart="26.00" departLane="1to4_0" departPos="0.00" departSpeed="0.00" departDelay="24.00" arrival="75.00" arrivalLane="7to9_0" arrivalPos="100.00" arrivalSpeed="10.00" duration="49.00" routeLength="300.00" waitSteps="0" rerouteNo="0" devices="tripinfo_vid#123#1#9" vType="vtype1" vaporized=""/>
    <tripinfo id="vid#177#3#8" depart="44.00" departLane="3to5_0" departPos="0.00" departSpeed="0.00" departDelay="37.00" arrival="77.00" arrivalLane="5to8_0" arrivalPos="100.00" arrivalSpeed="9.86" duration="33.00" routeLength="200.00" waitSteps="1" rerouteNo="0" devices="tripinfo_vid#177#3#8" vType="vtype1" vaporized=""/>
    <tripinfo id="vid#154#3#10" depart="35.00" departLane="3to6_0" departPos="0.00" departSpeed="0.00" departDelay="30.00" arrival="80.00" arrivalLane="9to10_0" arrivalPos="100.00" arrivalSpeed="9.72" duration="45.00" routeLength="300.00" waitSteps="1" rerouteNo="0" devices="tripinfo_vid#154#3#10" vType="vtype1" vaporized=""/>
    <tripinfo id="vid#126#1#9" depart="33.00" departLane="1to4_0" departPos="0.00" departSpeed="0.00" departDelay="31.00" arrival="81.00" arrivalLane="7to9_0" arrivalPos="100.00" arrivalSpeed="9.88" duration="48.00" routeLength="300.00" waitSteps="0" rerouteNo="0" devices="tripinfo_vid#126#1#9" vType="vtype1" vaporized=""/>
    <tripinfo id="vid#178#3#8" depart="48.00" departLane="3to5_0" departPos="0.00" departSpeed="0.00" departDelay="41.00" arrival="83.00" arrivalLane="5to8_0" arrivalPos="100.00" arrivalSpeed="9.81" duration="35.00" routeLength="200.00" waitSteps="0" rerouteNo="0" devices="tripinfo_vid#178#3#8" vType="vtype1" vaporized=""/>
    <tripinfo id="vid#180#3#8" depart="52.00" departLane="3to5_0" departPos="0.00" departSpeed="0.00" departDelay="44.00" arrival="85.00" arrivalLane="5to8_0" arrivalPos="100.00" arrivalSpeed="9.66" duration="33.00" routeLength="200.00" waitSteps="0" rerouteNo="0" devices="tripinfo_vid#180#3#8" vType="vtype1" vaporized=""/>
    <tripinfo id="vid#157#3#10" depart="39.00" departLane="3to6_0" departPos="0.00" departSpeed="0.00" departDelay="34.00" arrival="85.00" arrivalLane="9to10_0" arrivalPos="100.00" arrivalSpeed="9.62" duration="46.00" routeLength="300.00" waitSteps="0" rerouteNo="0" devices="tripinfo_vid#157#3#10" vType="vtype1" vaporized=""/>
    <tripinfo id="vid#128#1#8" depart="36.00" departLane="1to4_0" departPos="0.00" departSpeed="0.00" departDelay="34.00" arrival="85.00" arrivalLane="7to8_0" arrivalPos="100.00" arrivalSpeed="9.92" duration="49.00" routeLength="300.00" waitSteps="0" rerouteNo="0" devices="tripinfo_vid#128#1#8" vType="vtype1" vaporized=""/>
    <tripinfo id="vid#160#3#10" depart="42.00" departLane="3to6_0" departPos="0.00" departSpeed="0.00" departDelay="36.00" arrival="86.00" arrivalLane="9to10_0" arrivalPos="100.00" arrivalSpeed="9.86" duration="44.00" routeLength="300.00" waitSteps="0" rerouteNo="0" devices="tripinfo_vid#160#3#10" vType="vtype1" vaporized=""/>
    <tripinfo id="vid#175#3#9" depart="56.00" departLane="3to6_0" departPos="0.00" departSpeed="0.00" departDelay="49.00" arrival="88.00" arrivalLane="6to9_0" arrivalPos="100.00" arrivalSpeed="8.77" duration="32.00" routeLength="200.00" waitSteps="0" rerouteNo="0" devices="tripinfo_vid#175#3#9" vType="vtype1" vaporized=""/>
    <tripinfo id="vid#129#1#10" depart="39.00" departLane="1to4_0" departPos="0.00" departSpeed="0.00" departDelay="37.00" arrival="88.00" arrivalLane="7to10_0" arrivalPos="100.00" arrivalSpeed="9.71" duration="49.00" routeLength="300.00" waitSteps="0" rerouteNo="0" devices="tripinfo_vid#129#1#10" vType="vtype1" vaporized=""/>
    <tripinfo id="vid#9#3#8" depart="56.00" departLane="3to5_0" departPos="2.10" departSpeed="0.00" departDelay="47.00" arrival="90.00" arrivalLane="5to8_0" arrivalPos="100.00" arrivalSpeed="9.87" duration="34.00" routeLength="197.90" waitSteps="0" rerouteNo="0" devices="tripinfo_vid#9#3#8" vType="vtype1" vaporized=""/>
    <tripinfo id="vid#190#3#8" depart="58.00" departLane="3to5_0" departPos="0.00" departSpeed="0.00" departDelay="49.00" arrival="91.00" arrivalLane="5to8_0" arrivalPos="100.00" arrivalSpeed="9.87" duration="33.00" routeLength="200.00" waitSteps="0" rerouteNo="0" devices="tripinfo_vid#190#3#8" vType="vtype1" vaporized=""/>
    <tripinfo id="vid#137#1#8" depart="42.00" departLane="1to4_0" departPos="0.00" departSpeed="0.00" departDelay="39.00" arrival="91.00" arrivalLane="7to8_0" arrivalPos="100.00" arrivalSpeed="9.81" duration="49.00" routeLength="300.00" waitSteps="0" rerouteNo="0" devices="tripinfo_vid#137#1#8" vType="vtype1" vaporized=""/>
    <tripinfo id="vid#161#3#10" depart="46.00" departLane="3to6_0" departPos="0.00" departSpeed="0.00" departDelay="40.00" arrival="94.00" arrivalLane="9to10_0" arrivalPos="100.00" arrivalSpeed="9.74" duration="48.00" routeLength="300.00" waitSteps="0" rerouteNo="0" devices="tripinfo_vid#161#3#10" vType="vtype1" vaporized=""/>
    <tripinfo id="vid#138#1#9" depart="46.00" departLane="1to4_0" departPos="0.00" departSpeed="0.00" departDelay="43.00" arrival="94.00" arrivalLane="7to9_0" arrivalPos="100.00" arrivalSpeed="9.88" duration="48.00" routeLength="300.00" waitSteps="0" rerouteNo="0" devices="tripinfo_vid#138#1#9" vType="vtype1" vaporized=""/>
    <tripinfo id="vid#202#3#8" depart="62.00" departLane="3to5_0" departPos="0.00" departSpeed="0.00" departDelay="52.00" arrival="96.00" arrivalLane="5to8_0" arrivalPos="100.00" arrivalSpeed="9.91" duration="34.00" routeLength="200.00" waitSteps="0" rerouteNo="0" devices="tripinfo_vid#202#3#8" vType="vtype1" vaporized=""/>
    <tripinfo id="vid#139#1#9" depart="49.00" departLane="1to4_0" departPos="0.00" departSpeed="0.00" departDelay="46.00" arrival="97.00" arrivalLane="7to9_0" arrivalPos="100.00" arrivalSpeed="9.64" duration="48.00" routeLength="300.00" waitSteps="1" rerouteNo="0" devices="tripinfo_vid#139#1#9" vType="vtype1" vaporized=""/>
    <tripinfo id="vid#206#3#8" depart="66.00" departLane="3to5_0" departPos="0.00" departSpeed="0.00" departDelay="56.00" arrival="98.00" arrivalLane="5to8_0" arrivalPos="100.00" arrivalSpeed="9.97" duration="32.00" routeLength="200.00" waitSteps="0" rerouteNo="0" devices="tripinfo_vid#206#3#8" vType="vtype1" vaporized=""/>
    <tripinfo id="vid#164#3#10" depart="49.00" departLane="3to6_0" departPos="0.00" departSpeed="0.00" departDelay="43.00" arrival="98.00" arrivalLane="9to10_0" arrivalPos="100.00" arrivalSpeed="9.82" duration="49.00" routeLength="300.00" waitSteps="0" rerouteNo="0" devices="tripinfo_vid#164#3#10" vType="vtype1" vaporized=""/>
    <tripinfo id="vid#195#3#9" depart="66.00" departLane="3to6_0" departPos="0.00" departSpeed="0.00" departDelay="57.00" arrival="99.00" arrivalLane="6to9_0" arrivalPos="100.00" arrivalSpeed="7.29" duration="33.00" routeLength="200.00" waitSteps="0" rerouteNo="0" devices="tripinfo_vid#195#3#9" vType="vtype1" vaporized=""/>
    <tripinfo id="vid#167#3#10" depart="53.00" departLane="3to6_0" departPos="0.00" departSpeed="0.00" departDelay="47.00" arrival="99.00" arrivalLane="9to10_0" arrivalPos="100.00" arrivalSpeed="9.73" duration="46.00" routeLength="300.00" waitSteps="0" rerouteNo="0" devices="tripinfo_vid#167#3#10" vType="vtype1" vaporized=""/>
    <tripinfo id="vid#209#3#8" depart="69.00" departLane="3to5_0" departPos="0.00" departSpeed="0.00" departDelay="59.00" arrival="103.00" arrivalLane="5to8_0" arrivalPos="100.00" arrivalSpeed="9.70" duration="34.00" routeLength="200.00" waitSteps="0" rerouteNo="0" devices="tripinfo_vid#209#3#8" vType="vtype1" vaporized=""/>
    <tripinfo id="vid#145#1#10" depart="53.00" departLane="1to4_0" departPos="0.00" departSpeed="0.00" departDelay="49.00" arrival="104.00" arrivalLane="7to10_0" arrivalPos="100.00" arrivalSpeed="9.77" duration="51.00" routeLength="300.00" waitSteps="0" rerouteNo="0" devices="tripinfo_vid#145#1#10" vType="vtype1" vaporized=""/>
    <tripinfo id="vid#234#3#8" depart="72.00" departLane="3to5_0" departPos="0.00" departSpeed="0.00" departDelay="59.00" arrival="106.00" arrivalLane="5to8_0" arrivalPos="100.00" arrivalSpeed="9.73" duration="34.00" routeLength="200.00" waitSteps="0" rerouteNo="0" devices="tripinfo_vid#234#3#8" vType="vtype1" vaporized=""/>
    <tripinfo id="vid#186#3#10" depart="59.00" departLane="3to6_0" departPos="0.00" departSpeed="0.00" departDelay="51.00" arrival="107.00" arrivalLane="9to10_0" arrivalPos="100.00" arrivalSpeed="9.96" duration="48.00" routeLength="300.00" waitSteps="0" rerouteNo="0" devices="tripinfo_vid#186#3#10" vType="vtype1" vaporized=""/>
    <tripinfo id="vid#149#1#10" depart="57.00" departLane="1to4_0" departPos="0.00" departSpeed="0.00" departDelay="53.00" arrival="107.00" arrivalLane="7to10_0" arrivalPos="100.00" arrivalSpeed="9.82" duration="50.00" routeLength="300.00" waitSteps="0" rerouteNo="0" devices="tripinfo_vid#149#1#10" vType="vtype1" vaporized=""/>
    <tripinfo id="vid#263#3#8" depart="76.00" departLane="3to5_0" departPos="0.00" departSpeed="0.00" departDelay="60.00" arrival="108.00" arrivalLane="5to8_0" arrivalPos="100.00" arrivalSpeed="9.66" duration="32.00" routeLength="200.00" waitSteps="0" rerouteNo="0" devices="tripinfo_vid#263#3#8" vType="vtype1" vaporized=""/>
    <tripinfo id="vid#194#3#10" depart="62.00" departLane="3to6_0" departPos="0.00" departSpeed="0.00" departDelay="53.00" arrival="110.00" arrivalLane="9to10_0" arrivalPos="100.00" arrivalSpeed="9.68" duration="48.00" routeLength="300.00" waitSteps="1" rerouteNo="0" devices="tripinfo_vid#194#3#10" vType="vtype1" vaporized=""/>
    <tripinfo id="vid#5#1#9" depart="61.00" departLane="1to4_0" departPos="2.10" departSpeed="0.00" departDelay="56.00" arrival="110.00" arrivalLane="7to9_0" arrivalPos="100.00" arrivalSpeed="9.73" duration="49.00" routeLength="297.90" waitSteps="0" rerouteNo="0" devices="tripinfo_vid#5#1#9" vType="vtype1" vaporized=""/>
    <tripinfo id="vid#269#3#8" depart="79.00" departLane="3to5_0" departPos="0.00" departSpeed="0.00" departDelay="63.00" arrival="111.00" arrivalLane="5to8_0" arrivalPos="100.00" arrivalSpeed="9.76" duration="32.00" routeLength="200.00" waitSteps="0" rerouteNo="0" devices="tripinfo_vid#269#3#8" vType="vtype1" vaporized=""/>
    <tripinfo id="vid#152#1#8" depart="63.00" departLane="1to4_0" departPos="0.00" departSpeed="0.00" departDelay="58.00" arrival="111.00" arrivalLane="7to8_0" arrivalPos="100.00" arrivalSpeed="9.92" duration="48.00" routeLength="300.00" waitSteps="0" rerouteNo="0" devices="tripinfo_vid#152#1#8" vType="vtype1" vaporized=""/>
    <tripinfo id="vid#12#3#9" depart="80.00" departLane="3to6_0" departPos="2.10" departSpeed="0.00" departDelay="68.00" arrival="113.00" arrivalLane="6to9_0" arrivalPos="100.00" arrivalSpeed="9.85" duration="33.00" routeLength="197.90" waitSteps="0" rerouteNo="0" devices="tripinfo_vid#12#3#9" vType="vtype1" vaporized=""/>
    <tripinfo id="vid#274#3#8" depart="82.00" departLane="3to5_0" departPos="0.00" departSpeed="0.00" departDelay="65.00" arrival="113.00" arrivalLane="5to8_0" arrivalPos="100.00" arrivalSpeed="9.98" duration="31.00" routeLength="200.00" waitSteps="0" rerouteNo="0" devices="tripinfo_vid#274#3#8" vType="vtype1" vaporized=""/>
    <tripinfo id="vid#153#1#10" depart="67.00" departLane="1to4_0" departPos="0.00" departSpeed="0.00" departDelay="62.00" arrival="116.00" arrivalLane="7to10_0" arrivalPos="100.00" arrivalSpeed="9.86" duration="49.00" routeLength="300.00" waitSteps="0" rerouteNo="0" devices="tripinfo_vid#153#1#10" vType="vtype1" vaporized=""/>
    <tripinfo id="vid#156#1#8" depart="70.00" departLane="1to4_0" departPos="0.00" departSpeed="0.00" departDelay="65.00" arrival="116.00" arrivalLane="7to8_0" arrivalPos="100.00" arrivalSpeed="9.82" duration="46.00" routeLength="300.00" waitSteps="0" rerouteNo="0" devices="tripinfo_vid#156#1#8" vType="vtype1" vaporized=""/>
    <tripinfo id="vid#291#3#8" depart="85.00" departLane="3to5_0" departPos="0.00" departSpeed="0.00" departDelay="66.00" arrival="118.00" arrivalLane="5to8_0" arrivalPos="100.00" arrivalSpeed="9.75" duration="33.00" routeLength="200.00" waitSteps="1" rerouteNo="0" devices="tripinfo_vid#291#3#8" vType="vtype1" vaporized=""/>
    <tripinfo id="vid#10#3#10" depart="70.00" departLane="3to6_0" departPos="2.10" departSpeed="0.00" departDelay="60.00" arrival="119.00" arrivalLane="9to10_0" arrivalPos="100.00" arrivalSpeed="9.63" duration="49.00" routeLength="297.90" waitSteps="0" rerouteNo="0" devices="tripinfo_vid#10#3#10" vType="vtype1" vaporized=""/>
    <tripinfo id="vid#159#1#10" depart="74.00" departLane="1to4_0" departPos="0.00" departSpeed="0.00" departDelay="69.00" arrival="120.00" arrivalLane="7to10_0" arrivalPos="100.00" arrivalSpeed="9.84" duration="46.00" routeLength="300.00" waitSteps="0" rerouteNo="0" devices="tripinfo_vid#159#1#10" vType="vtype1" vaporized=""/>
    <tripinfo id="vid#222#3#9" depart="85.00" departLane="3to6_0" departPos="0.00" departSpeed="0.00" departDelay="73.00" arrival="121.00" arrivalLane="6to9_0" arrivalPos="100.00" arrivalSpeed="9.89" duration="36.00" routeLength="200.00" waitSteps="0" rerouteNo="0" devices="tripinfo_vid#222#3#9" vType="vtype1" vaporized=""/>
    <tripinfo id="vid#205#3#10" depart="72.00" departLane="3to6_0" departPos="0.00" departSpeed="0.00" departDelay="62.00" arrival="121.00" arrivalLane="9to10_0" arrivalPos="100.00" arrivalSpeed="9.80" duration="49.00" routeLength="300.00" waitSteps="1" rerouteNo="0" devices="tripinfo_vid#205#3#10" vType="vtype1" vaporized=""/>
    <tripinfo id="vid#214#3#10" depart="76.00" departLane="3to6_0" departPos="0.00" departSpeed="0.00" departDelay="65.00" arrival="122.00" arrivalLane="9to10_0" arrivalPos="100.00" arrivalSpeed="9.71" duration="46.00" routeLength="300.00" waitSteps="0" rerouteNo="0" devices="tripinfo_vid#214#3#10" vType="vtype1" vaporized=""/>
    <tripinfo id="vid#223#3#9" depart="89.00" departLane="3to6_0" departPos="0.00" departSpeed="0.00" departDelay="77.00" arrival="123.00" arrivalLane="6to9_0" arrivalPos="100.00" arrivalSpeed="9.73" duration="34.00" routeLength="200.00" waitSteps="0" rerouteNo="0" devices="tripinfo_vid#223#3#9" vType="vtype1" vaporized=""/>
    <tripinfo id="vid#292#3#8" depart="89.00" departLane="3to5_0" departPos="0.00" departSpeed="0.00" departDelay="70.00" arrival="123.00" arrivalLane="5to8_0" arrivalPos="100.00" arrivalSpeed="9.67" duration="34.00" routeLength="200.00" waitSteps="0" rerouteNo="0" devices="tripinfo_vid#292#3#8" vType="vtype1" vaporized=""/>
    <tripinfo id="vid#6#1#8" depart="78.00" departLane="1to4_0" departPos="2.10" departSpeed="0.00" departDelay="72.00" arrival="125.00" arrivalLane="7to8_0" arrivalPos="100.00" arrivalSpeed="9.94" duration="47.00" routeLength="297.90" waitSteps="0" rerouteNo="0" devices="tripinfo_vid#6#1#8" vType="vtype1" vaporized=""/>
    <tripinfo id="vid#224#3#9" depart="92.00" departLane="3to6_0" departPos="0.00" departSpeed="0.00" departDelay="80.00" arrival="126.00" arrivalLane="6to9_0" arrivalPos="100.00" arrivalSpeed="9.95" duration="34.00" routeLength="200.00" waitSteps="0" rerouteNo="0" devices="tripinfo_vid#224#3#9" vType="vtype1" vaporized=""/>
    <tripinfo id="vid#295#3#8" depart="93.00" departLane="3to5_0" departPos="0.00" departSpeed="0.00" departDelay="74.00" arrival="126.00" arrivalLane="5to8_0" arrivalPos="100.00" arrivalSpeed="9.95" duration="33.00" routeLength="200.00" waitSteps="0" rerouteNo="0" devices="tripinfo_vid#295#3#8" vType="vtype1" vaporized=""/>
    <tripinfo id="vid#298#3#8" depart="96.00" departLane="3to5_0" departPos="0.00" departSpeed="0.00" departDelay="77.00" arrival="128.00" arrivalLane="5to8_0" arrivalPos="100.00" arrivalSpeed="9.74" duration="32.00" routeLength="200.00" waitSteps="0" rerouteNo="0" devices="tripinfo_vid#298#3#8" vType="vtype1" vaporized=""/>
    <tripinfo id="vid#220#3#10" depart="82.00" departLane="3to6_0" departPos="0.00" departSpeed="0.00" departDelay="70.00" arrival="130.00" arrivalLane="9to10_0" arrivalPos="100.00" arrivalSpeed="9.80" duration="48.00" routeLength="300.00" waitSteps="0" rerouteNo="0" devices="tripinfo_vid#220#3#10" vType="vtype1" vaporized=""/>
    <tripinfo id="vid#162#1#10" depart="80.00" departLane="1to4_0" departPos="0.00" departSpeed="0.00" departDelay="74.00" arrival="130.00" arrivalLane="7to10_0" arrivalPos="100.00" arrivalSpeed="9.79" duration="50.00" routeLength="300.00" waitSteps="1" rerouteNo="0" devices="tripinfo_vid#162#1#10" vType="vtype1" vaporized=""/>
    <tripinfo id="vid#228#3#9" depart="98.00" departLane="3to6_0" departPos="0.00" departSpeed="0.00" departDelay="86.00" arrival="131.00" arrivalLane="6to9_0" arrivalPos="100.00" arrivalSpeed="9.84" duration="33.00" routeLength="200.00" waitSteps="1" rerouteNo="0" devices="tripinfo_vid#228#3#9" vType="vtype1" vaporized=""/>
    <tripinfo id="vid#20#3#8" depart="100.00" departLane="3to5_0" departPos="2.10" departSpeed="0.00" departDelay="80.00" arrival="132.00" arrivalLane="5to8_0" arrivalPos="100.00" arrivalSpeed="9.90" duration="32.00" routeLength="197.90" waitSteps="0" rerouteNo="0" devices="tripinfo_vid#20#3#8" vType="vtype1" vaporized=""/>
    <tripinfo id="vid#163#1#10" depart="84.00" departLane="1to4_0" departPos="0.00" departSpeed="0.00" departDelay="78.00" arrival="133.00" arrivalLane="7to10_0" arrivalPos="100.00" arrivalSpeed="9.94" duration="49.00" routeLength="300.00" waitSteps="0" rerouteNo="0" devices="tripinfo_vid#163#1#10" vType="vtype1" vaporized=""/>
    <tripinfo id="vid#305#3#8" depart="102.00" departLane="3to5_0" departPos="0.00" departSpeed="0.00" departDelay="82.00" arrival="134.00" arrivalLane="5to8_0" arrivalPos="100.00" arrivalSpeed="9.81" duration="32.00" routeLength="200.00" waitSteps="0" rerouteNo="0" devices="tripinfo_vid#305#3#8" vType="vtype1" vaporized=""/>
    <tripinfo id="vid#168#1#10" depart="87.00" departLane="1to4_0" departPos="0.00" departSpeed="0.00" departDelay="81.00" arrival="135.00" arrivalLane="7to10_0" arrivalPos="100.00" arrivalSpeed="9.66" duration="48.00" routeLength="300.00" waitSteps="0" rerouteNo="0" devices="tripinfo_vid#168#1#10" vType="vtype1" vaporized=""/>
    <tripinfo id="vid#308#3#8" depart="105.00" departLane="3to5_0" departPos="0.00" departSpeed="0.00" departDelay="85.00" arrival="137.00" arrivalLane="5to8_0" arrivalPos="100.00" arrivalSpeed="9.98" duration="32.00" routeLength="200.00" waitSteps="0" rerouteNo="0" devices="tripinfo_vid#308#3#8" vType="vtype1" vaporized=""/>