<?xml version="1.0" encoding="UTF-8"?>

<!-- generated on Tuesday 21 March 2017 11:54:15 AM IST by SUMO gui Version 0.19.0
<?xml version="1.0" encoding="UTF-8"?>

<configuration xmlns:xsi="http://www.w3.org/2001/XMLSchema-instance" xsi:noNamespaceSchemaLocation="http://sumo-sim.org/xsd/sumo-gui.exeConfiguration.xsd">

    <input>
        <net-file value="testdata/sim.net.xml"/>
        <route-files value="testdata/sim.rou.xml"/>
        <additional-files value="testdata/sim.det.xml"/>
    </input>

    <output>
        <tripinfo-output value="simtripinfo.xml"/>
        <save-state.prefix value="testdata/state"/>
    </output>

    <time>
        <begin value="0"/>
    </time>

    <report>
        <verbose value="true"/>
        <no-step-log value="true"/>
    </report>

    <traci_server>
        <remote-port value="54214"/>
    </traci_server>

    <gui_only>
        <gui-settings-file value="testdata/sim.settings.xml"/>
    </gui_only>

</configuration>
-->

<tripinfos>
    <tripinfo id="vid#0#1#10" depart="0.00" departLane="1to4_0" departPos="5.10" departSpeed="0.00" departDelay="0.00" arrival="49.00" arrivalLane="7to10_0" arrivalPos="100.00" arrivalSpeed="9.85" duration="49.00" routeLength="294.90" waitSteps="0" rerouteNo="1" devices="tripinfo_vid#0#1#10" vType="vtype1" vaporized=""/>
    <tripinfo id="vid#1#1#10" depart="5.00" departLane="1to4_0" departPos="5.10" departSpeed="0.00" departDelay="5.00" arrival="52.00" arrivalLane="7to10_0" arrivalPos="100.00" arrivalSpeed="9.63" duration="47.00" routeLength="294.90" waitSteps="0" rerouteNo="1" devices="tripinfo_vid#1#1#10" vType="vtype1" vaporized=""/>
    <tripinfo id="vid#3#1#10" depart="15.00" departLane="1to4_0" departPos="5.10" departSpeed="0.00" departDelay="15.00" arrival="61.00" arrivalLane="7to10_0" arrivalPos="100.00" arrivalSpeed="9.98" duration="46.00" routeLength="294.90" waitSteps="0" rerouteNo="1" devices="tripinfo_vid#3#1#10" vType="vtype1" vaporized=""/>
    <tripinfo id="vid#5#1#10" depart="25.00" departLane="1to4_0" departPos="5.10" departSpeed="0.00" departDelay="25.00" arrival="71.00" arrivalLane="7to10_0" arrivalPos="100.00" arrivalSpeed="9.67" duration="46.00" routeLength="294.90" waitSteps="0" rerouteNo="1" devices="tripinfo_vid#5#1#10" vType="vtype1" vaporized=""/>
    <tripinfo id="vid#2#1#10" depart="10.00" departLane="1to4_0" departPos="5.10" departSpeed="0.00" departDelay="10.00" arrival="72.00" arrivalLane="8to10_0" arrivalPos="100.00" arrivalSpeed="9.94" duration="62.00" routeLength="294.90" waitSteps="0" rerouteNo="2" devices="tripinfo_vid#2#1#10" vType="vtype1" vaporized=""/>
    <tripinfo id="vid#4#1#10" depart="20.00" departLane="1to4_0" departPos="5.10" departSpeed="0.00" departDelay="20.00" arrival="81.00" arrivalLane="8to10_0" arrivalPos="100.00" arrivalSpeed="9.63" duration="61.00" routeLength="294.90" waitSteps="0" rerouteNo="2" devices="tripinfo_vid#4#1#10" vType="vtype1" vaporized=""/>
    <tripinfo id="vid#6#1#10" depart="30.00" departLane="1to4_0" departPos="5.10" departSpeed="0.00" departDelay="30.00" arrival="93.00" arrivalLane="8to10_0" arrivalPos="100.00" arrivalSpeed="9.77" duration="63.00" routeLength="294.90" waitSteps="0" rerouteNo="2" devices="tripinfo_vid#6#1#10" vType="vtype1" vaporized=""/>
    <tripinfo id="vid#7#1#10" depart="35.00" departLane="1to4_0" departPos="5.10" departSpeed="0.00" departDelay="35.00" arrival="97.00" arrivalLane="8to10_0" arrivalPos="100.00" arrivalSpeed="9.94" duration="62.00" routeLength="294.90" waitSteps="0" rerouteNo="2" devices="tripinfo_vid#7#1#10" vType="vtype1" vaporized=""/>
    <tripinfo id="vid#8#1#10" depart="40.00" departLane="1to4_0" departPos="5.10" departSpeed="0.00" departDelay="40.00" arrival="99.00" arrivalLane="8to10_0" arrivalPos="100.00" arrivalSpeed="9.67" duration="59.00" routeLength="294.90" waitSteps="0" rerouteNo="2" devices="tripinfo_vid#8#1#10" vType="vtype1" vaporized=""/>
    <tripinfo id="vid#9#1#10" depart="45.00" departLane="1to4_0" departPos="5.10" departSpeed="0.00" departDelay="45.00" arrival="106.00" arrivalLane="8to10_0" arrivalPos="100.00" arrivalSpeed="9.82" duration="61.00" routeLength="294.90" waitSteps="0" rerouteNo="2" devices="tripinfo_vid#9#1#10" vType="vtype1" vaporized=""/>
    <tripinfo id="vid#10#1#10" depart="50.00" departLane="1to4_0" departPos="5.10" departSpeed="0.00" departDelay="50.00" arrival="113.00" arrivalLane="8to10_0" arrivalPos="100.00" arrivalSpeed="9.82" duration="63.00" routeLength="294.90" waitSteps="0" rerouteNo="2" devices="tripinfo_vid#10#1#10" vType="vtype1" vaporized=""/>
    <tripinfo id="vid#11#1#10" depart="56.00" departLane="1to4_0" departPos="5.10" departSpeed="0.00" departDelay="56.00" arrival="117.00" arrivalLane="8to10_0" arrivalPos="100.00" arrivalSpeed="9.93" duration="61.00" routeLength="294.90" waitSteps="0" rerouteNo="2" devices="tripinfo_vid#11#1#10" vType="vtype1" vaporized=""/>
    <tripinfo id="vid#12#1#10" depart="61.00" departLane="1to4_0" departPos="5.10" departSpeed="0.00" departDelay="61.00" arrival="127.00" arrivalLane="8to10_0" arrivalPos="100.00" arrivalSpeed="9.63" duration="66.00" routeLength="294.90" waitSteps="0" rerouteNo="2" devices="tripinfo_vid#12#1#10" vType="vtype1" vaporized=""/>
    <tripinfo id="vid#13#1#10" depart="67.00" departLane="1to4_0" departPos="5.10" departSpeed="0.00" departDelay="67.00" arrival="129.00" arrivalLane="8to10_0" arrivalPos="100.00" arrivalSpeed="9.71" duration="62.00" routeLength="294.90" waitSteps="0" rerouteNo="2" devices="tripinfo_vid#13#1#10" vType="vtype1" vaporized=""/>
    <tripinfo id="vid#14#1#10" depart="72.00" departLane="1to4_0" departPos="5.10" departSpeed="0.00" departDelay="72.00" arrival="133.00" arrivalLane="8to10_0" arrivalPos="100.00" arrivalSpeed="9.84" duration="61.00" routeLength="294.90" waitSteps="0" rerouteNo="2" devices="tripinfo_vid#14#1#10" vType="vtype1" vaporized=""/>
    <tripinfo id="vid#15#1#10" depart="78.00" departLane="1to4_0" departPos="5.10" departSpeed="0.00" departDelay="78.00" arrival="137.00" arrivalLane="8to10_0" arrivalPos="100.00" arrivalSpeed="9.60" duration="59.00" routeLength="294.90" waitSteps="0" rerouteNo="2" devices="tripinfo_vid#15#1#10" vType="vtype1" vaporized=""/>
    <tripinfo id="vid#16#1#10" depart="83.00" departLane="1to4_0" departPos="5.10" departSpeed="0.00" departDelay="83.00" arrival="144.00" arrivalLane="8to10_0" arrivalPos="100.00" arrivalSpeed="9.75" duration="61.00" routeLength="294.90" waitSteps="0" rerouteNo="2" devices="tripinfo_vid#16#1#10" vType="vtype1" vaporized=""/>
    <tripinfo id="vid#17#1#10" depart="88.00" departLane="1to4_0" departPos="5.10" departSpeed="0.00" departDelay="88.00" arrival="148.00" arrivalLane="7to10_0" arrivalPos="100.00" arrivalSpeed="9.92" duration="60.00" routeLength="294.90" waitSteps="0" rerouteNo="2" devices="tripinfo_vid#17#1#10" vType="vtype1" vaporized=""/>
    <tripinfo id="vid#18#1#10" depart="93.00" departLane="1to4_0" departPos="5.10" departSpeed="0.00" departDelay="93.00" arrival="154.00" arrivalLane="8to10_0" arrivalPos="100.00" arrivalSpeed="9.76" duration="61.00" routeLength="294.90" waitSteps="0" rerouteNo="2" devices="tripinfo_vid#18#1#10" vType="vtype1" vaporized=""/>
    <tripinfo id="vid#19#1#10" depart="98.00" departLane="1to4_0" departPos="5.10" departSpeed="0.00" departDelay="98.00" arrival="157.00" arrivalLane="8to10_0" arrivalPos="100.00" arrivalSpeed="9.89" duration="59.00" routeLength="294.90" waitSteps="0" rerouteNo="2" devices="tripinfo_vid#19#1#10" vType="vtype1" vaporized=""/>
    <tripinfo id="vid#22#1#10" depart="113.00" departLane="1to4_0" departPos="5.10" departSpeed="0.00" departDelay="113.00" arrival="160.00" arrivalLane="7to10_0" arrivalPos="100.00" arrivalSpeed="9.89" duration="47.00" routeLength="294.90" waitSteps="0" rerouteNo="1" devices="tripinfo_vid#22#1#10" vType="vtype1" vaporized=""/>
    <tripinfo id="vid#23#1#10" depart="118.00" departLane="1to4_0" departPos="5.10" departSpeed="0.00" departDelay="118.00" arrival="166.00" arrivalLane="7to10_0" arrivalPos="100.00" arrivalSpeed="9.86" duration="48.00" routeLength="294.90" waitSteps="0" rerouteNo="1" devices="tripinfo_vid#23#1#10" vType="vtype1" vaporized=""/>
    <tripinfo id="vid#21#1#10" depart="108.00" departLane="1to4_0" departPos="5.10" departSpeed="0.00" departDelay="108.00" arrival="169.00" arrivalLane="7to10_0" arrivalPos="100.00" arrivalSpeed="9.74" duration="61.00" routeLength="294.90" waitSteps="0" rerouteNo="2" devices="tripinfo_vid#21#1#10" vType="vtype1" vaporized=""/>
    <tripinfo id="vid#20#1#10" depart="103.00" departLane="1to4_0" departPos="5.10" departSpeed="0.00" departDelay="103.00" arrival="177.00" arrivalLane="8to10_0" arrivalPos="100.00" arrivalSpeed="9.92" duration="74.00" routeLength="294.90" waitSteps="0" rerouteNo="3" devices="tripinfo_vid#20#1#10" vType="vtype1" vaporized=""/>
    <tripinfo id="vid#24#1#10" depart="123.00" departLane="1to4_0" departPos="5.10" departSpeed="0.00" departDelay="123.00" arrival="188.00" arrivalLane="7to10_0" arrivalPos="100.00" arrivalSpeed="9.80" duration="65.00" routeLength="294.90" waitSteps="0" rerouteNo="2" devices="tripinfo_vid#24#1#10" vType="vtype1" vaporized=""/>
    <tripinfo id="vid#25#1#10" depart="128.00" departLane="1to4_0" departPos="5.10" departSpeed="0.00" departDelay="128.00" arrival="188.00" arrivalLane="9to10_0" arrivalPos="100.00" arrivalSpeed="9.82" duration="60.00" routeLength="294.90" waitSteps="0" rerouteNo="2" devices="tripinfo_vid#25#1#10" vType="vtype1" vaporized=""/>
    <tripinfo id="vid#27#1#10" depart="139.00" departLane="1to4_0" departPos="5.10" departSpeed="0.00" departDelay="139.00" arrival="194.00" arrivalLane="7to10_0" arrivalPos="100.00" arrivalSpeed="9.77" duration="55.00" routeLength="294.90" waitSteps="0" rerouteNo="1" devices="tripinfo_vid#27#1#10" vType="vtype1" vaporized=""/>
    <tripinfo id="vid#26#1#10" depart="134.00" departLane="1to4_0" departPos="5.10" departSpeed="0.00" departDelay="134.00" arrival="196.00" arrivalLane="9to10_0" arrivalPos="100.00" arrivalSpeed="9.68" duration="62.00" routeLength="294.90" waitSteps="0" rerouteNo="2" devices="tripinfo_vid#26#1#10" vType="vtype1" vaporized=""/>
    <tripinfo id="vid#28#1#10" depart="144.00" departLane="1to4_0" departPos="5.10" departSpeed="0.00" departDelay="144.00" arrival="197.00" arrivalLane="7to10_0" arrivalPos="100.00" arrivalSpeed="9.69" duration="53.00" routeLength="294.90" waitSteps="0" rerouteNo="1" devices="tripinfo_vid#28#1#10" vType="vtype1" vaporized=""/>
    <tripinfo id="vid#29#1#10" depart="149.00" departLane="1to4_0" departPos="5.10" departSpeed="0.00" departDelay="149.00" arrival="211.00" arrivalLane="9to10_0" arrivalPos="100.00" arrivalSpeed="9.87" duration="62.00" routeLength="294.90" waitSteps="0" rerouteNo="2" devices="tripinfo_vid#29#1#10" vType="vtype1" vaporized=""/>
    <tripinfo id="vid#31#1#10" depart="159.00" departLane="1to4_0" departPos="5.10" departSpeed="0.00" departDelay="159.00" arrival="223.00" arrivalLane="9to10_0" arrivalPos="100.00" arrivalSpeed="9.65" duration="64.00" routeLength="294.90" waitSteps="0" rerouteNo="2" devices="tripinfo_vid#31#1#10" vType="vtype1" vaporized=""/>
    <tripinfo id="vid#32#1#10" depart="164.00" departLane="1to4_0" departPos="5.10" departSpeed="0.00" departDelay="164.00" arrival="225.00" arrivalLane="9to10_0" arrivalPos="100.00" arrivalSpeed="9.75" duration="61.00" routeLength="294.90" waitSteps="0" rerouteNo="2" devices="tripinfo_vid#32#1#10" vType="vtype1" vaporized=""/>
    <tripinfo id="vid#33#1#10" depart="169.00" departLane="1to4_0" departPos="5.10" departSpeed="0.00" departDelay="169.00" arrival="232.00" arrivalLane="9to10_0" arrivalPos="100.00" arrivalSpeed="9.89" duration="63.00" routeLength="294.90" waitSteps="0" rerouteNo="2" devices="tripinfo_vid#33#1#10" vType="vtype1" vaporized=""/>
    <tripinfo id="vid#30#1#10" depart="154.00" departLane="1to4_0" departPos="5.10" departSpeed="0.00" departDelay="154.00" arrival="237.00" arrivalLane="9to10_0" arrivalPos="100.00" arrivalSpeed="9.65" duration="83.00" routeLength="294.90" waitSteps="5" rerouteNo="3" devices="tripinfo_vid#30#1#10" vType="vtype1" vaporized=""/>
    <tripinfo id="vid#35#1#10" depart="180.00" departLane="1to4_0" departPos="5.10" departSpeed="0.00" departDelay="180.00" arrival="242.00" arrivalLane="8to10_0" arrivalPos="100.00" arrivalSpeed="9.76" duration="62.00" routeLength="294.90" waitSteps="0" rerouteNo="2" devices="tripinfo_vid#35#1#10" vType="vtype1" vaporized=""/>
    <tripinfo id="vid#34#1#10" depart="174.00" departLane="1to4_0" departPos="5.10" departSpeed="0.00" departDelay="174.00" arrival="248.00" arrivalLane="9to10_0" arrivalPos="100.00" arrivalSpeed="9.91" duration="74.00" routeLength="294.90" waitSteps="0" rerouteNo="3" devices="tripinfo_vid#34#1#10" vType="vtype1" vaporized=""/>
    <tripinfo id="vid#36#1#10" depart="185.00" departLane="1to4_0" departPos="5.10" departSpeed="0.00" departDelay="185.00" arrival="256.00" arrivalLane="9to10_0" arrivalPos="100.00" arrivalSpeed="9.70" duration="71.00" routeLength="294.90" waitSteps="2" rerouteNo="2" devices="tripinfo_vid#36#1#10" vType="vtype1" vaporized=""/>
    <tripinfo id="vid#37#1#10" depart="190.00" departLane="1to4_0" departPos="5.10" departSpeed="0.00" departDelay="190.00" arrival="258.00" arrivalLane="9to10_0" arrivalPos="100.00" arrivalSpeed="9.94" duration="68.00" routeLength="294.90" waitSteps="0" rerouteNo="2" devices="tripinfo_vid#37#1#10" vType="vtype1" vaporized=""/>
    <tripinfo id="vid#39#1#10" depart="199.00" departLane="1to4_0" departPos="5.10" departSpeed="0.00" departDelay="199.00" arrival="258.00" arrivalLane="8to10_0" arrivalPos="100.00" arrivalSpeed="9.66" duration="59.00" routeLength="294.90" waitSteps="1" rerouteNo="2" devices="tripinfo_vid#39#1#10" vType="vtype1" vaporized=""/>
    <tripinfo id="vid#38#1#10" depart="195.00" departLane="1to4_0" departPos="5.10" departSpeed="0.00" departDelay="195.00" arrival="261.00" arrivalLane="9to10_0" arrivalPos="100.00" arrivalSpeed="9.69" duration="66.00" routeLength="294.90" waitSteps="0" rerouteNo="2" devices="tripinfo_vid#38#1#10" vType="vtype1" vaporized=""/>
    <tripinfo id="vid#40#1#10" depart="205.00" departLane="1to4_0" departPos="5.10" departSpeed="0.00" departDelay="205.00" arrival="264.00" arrivalLane="8to10_0" arrivalPos="100.00" arrivalSpeed="9.81" duration="59.00" routeLength="294.90" waitSteps="0" rerouteNo="2" devices="tripinfo_vid#40#1#10" vType="vtype1" vaporized=""/>
    <tripinfo id="vid#43#1#10" depart="221.00" departLane="1to4_0" departPos="5.10" departSpeed="0.00" departDelay="221.00" arrival="281.00" arrivalLane="8to10_0" arrivalPos="100.00" arrivalSpeed="9.95" duration="60.00" routeLength="294.90" waitSteps="0" rerouteNo="2" devices="tripinfo_vid#43#1#10" vType="vtype1" vaporized=""/>
    <tripinfo id="vid#41#1#10" depart="210.00" departLane="1to4_0" departPos="5.10" departSpeed="0.00" departDelay="210.00" arrival="281.00" arrivalLane="9to10_0" arrivalPos="100.00" arrivalSpeed="9.83" duration="71.00" routeLength="294.90" waitSteps="0" rerouteNo="3" devices="tripinfo_vid#41#1#10" vType="vtype1" vaporized=""/>
    <tripinfo id="vid#44#1#10" depart="226.00" departLane="1to4_0" departPos="5.10" departSpeed="0.00" departDelay="226.00" arrival="301.00" arrivalLane="9to10_0" arrivalPos="100.00" arrivalSpeed="9.88" duration="75.00" routeLength="294.90" waitSteps="0" rerouteNo="3" devices="tripinfo_vid#44#1#10" vType="vtype1" vaporized=""/>
    <tripinfo id="vid#45#1#10" depart="231.00" departLane="1to4_0" departPos="5.10" departSpeed="0.00" departDelay="231.00" arrival="304.00" arrivalLane="9to10_0" arrivalPos="100.00" arrivalSpeed="9.85" duration="73.00" routeLength="294.90" waitSteps="0" rerouteNo="3" devices="tripinfo_vid#45#1#10" vType="vtype1" vaporized=""/>
    <tripinfo id="vid#49#1#10" depart="251.00" departLane="1to4_0" departPos="5.10" departSpeed="0.00" departDelay="251.00" arrival="312.00" arrivalLane="9to10_0" arrivalPos="100.00" arrivalSpeed="9.95" duration="61.00" routeLength="294.90" waitSteps="0" rerouteNo="2" devices="tripinfo_vid#49#1#10" vType="vtype1" vaporized=""/>
    <tripinfo id="vid#52#1#10" depart="266.00" departLane="1to4_0" departPos="5.10" departSpeed="0.00" departDelay="266.00" arrival="312.00" arrivalLane="7to10_0" arrivalPos="100.00" arrivalSpeed="9.66" duration="46.00" routeLength="294.90" waitSteps="0" rerouteNo="1" devices="tripinfo_vid#52#1#10" vType="vtype1" vaporized=""/>
    <tripinfo id="vid#50#1#10" depart="256.00" departLane="1to4_0" departPos="5.10" departSpeed="0.00" departDelay="256.00" arrival="317.00" arrivalLane="9to10_0" arrivalPos="100.00" arrivalSpeed="9.96" duration="61.00" routeLength="294.90" waitSteps="0" rerouteNo="2" devices="tripinfo_vid#50#1#10" vType="vtype1" vaporized=""/>
    <tripinfo id="vid#53#1#10" depart="271.00" departLane="1to4_0" departPos="5.10" departSpeed="0.00" departDelay="271.00" arrival="317.00" arrivalLane="7to10_0" arrivalPos="100.00" arrivalSpeed="9.70" duration="46.00" routeLength="294.90" waitSteps="0" rerouteNo="1" devices="tripinfo_vid#53#1#10" vType="vtype1" vaporized=""/>
    <tripinfo id="vid#51#1#10" depart="261.00" departLane="1to4_0" departPos="5.10" departSpeed="0.00" departDelay="261.00" arrival="320.00" arrivalLane="8to10_0" arrivalPos="100.00" arrivalSpeed="9.79" duration="59.00" routeLength="294.90" waitSteps="0" rerouteNo="2" devices="tripinfo_vid#51#1#10" vType="vtype1" vaporized=""/>
    <tripinfo id="vid#48#1#10" depart="246.00" departLane="1to4_0" departPos="5.10" departSpeed="0.00" departDelay="246.00" arrival="324.00" arrivalLane="9to10_0" arrivalPos="100.00" arrivalSpeed="9.74" duration="78.00" routeLength="294.90" waitSteps="8" rerouteNo="2" devices="tripinfo_vid#48#1#10" vType="vtype1" vaporized=""/>
    <tripinfo id="vid#47#1#10" depart="241.00" departLane="1to4_0" departPos="5.10" departSpeed="0.00" departDelay="241.00" arrival="326.00" arrivalLane="9to10_0" arrivalPos="100.00" arrivalSpeed="9.96" duration="85.00" routeLength="294.90" waitSteps="5" rerouteNo="3" devices="tripinfo_vid#47#1#10" vType="vtype1" vaporized=""/>
    <tripinfo id="vid#55#1#10" depart="281.00" departLane="1to4_0" departPos="5.10" departSpeed="0.00" departDelay="281.00" arrival="328.00" arrivalLane="7to10_0" arrivalPos="100.00" arrivalSpeed="9.92" duration="47.00" routeLength="294.90" waitSteps="0" rerouteNo="1" devices="tripinfo_vid#55#1#10" vType="vtype1" vaporized=""/>
    <tripinfo id="vid#46#1#10" depart="236.00" departLane="1to4_0" departPos="5.10" departSpeed="0.00" departDelay="236.00" arrival="334.00" arrivalLane="9to10_0" arrivalPos="100.00" arrivalSpeed="9.90" duration="98.00" routeLength="294.90" waitSteps="16" rerouteNo="3" devices="tripinfo_vid#46#1#10" vType="vtype1" vaporized=""/>
    <tripinfo id="vid#54#1#10" depart="276.00" departLane="1to4_0" departPos="5.10" departSpeed="0.00" departDelay="276.00" arrival="336.00" arrivalLane="9to10_0" arrivalPos="100.00" arrivalSpeed="9.68" duration="60.00" routeLength="294.90" waitSteps="0" rerouteNo="2" devices="tripinfo_vid#54#1#10" vType="vtype1" vaporized=""/>
    <tripinfo id="vid#57#1#10" depart="291.00" departLane="1to4_0" departPos="5.10" departSpeed="0.00" departDelay="291.00" arrival="337.00" arrivalLane="7to10_0" arrivalPos="100.00" arrivalSpeed="9.65" duration="46.00" routeLength="294.90" waitSteps="1" rerouteNo="1" devices="tripinfo_vid#57#1#10" vType="vtype1" vaporized=""/>
    <tripinfo id="vid#58#1#10" depart="297.00" departLane="1to4_0" departPos="5.10" departSpeed="0.00" departDelay="297.00" arrival="343.00" arrivalLane="7to10_0" arrivalPos="100.00" arrivalSpeed="9.65" duration="46.00" routeLength="294.90" waitSteps="0" rerouteNo="1" devices="tripinfo_vid#58#1#10" vType="vtype1" vaporized=""/>
    <tripinfo id="vid#56#1#10" depart="286.00" departLane="1to4_0" departPos="5.10" departSpeed="0.00" departDelay="286.00" arrival="346.00" arrivalLane="9to10_0" arrivalPos="100.00" arrivalSpeed="9.80" duration="60.00" routeLength="294.90" waitSteps="0" rerouteNo="2" devices="tripinfo_vid#56#1#10" vType="vtype1" vaporized=""/>
    <tripinfo id="vid#59#1#10" depart="302.00" departLane="1to4_0" departPos="5.10" departSpeed="0.00" departDelay="302.00" arrival="350.00" arrivalLane="7to10_0" arrivalPos="100.00" arrivalSpeed="9.68" duration="48.00" routeLength="294.90" waitSteps="0" rerouteNo="1" devices="tripinfo_vid#59#1#10" vType="vtype1" vaporized=""/>
    <tripinfo id="vid#42#1#10" depart="215.00" departLane="1to4_0" departPos="5.10" departSpeed="0.00" departDelay="215.00" arrival="354.00" arrivalLane="9to10_0" arrivalPos="100.00" arrivalSpeed="9.60" duration="139.00" routeLength="294.90" waitSteps="30" rerouteNo="4" devices="tripinfo_vid#42#1#10" vType="vtype1" vaporized=""/>
    <tripinfo id="vid#60#1#10" depart="307.00" departLane="1to4_0" departPos="5.10" departSpeed="0.00" departDelay="307.00" arrival="366.00" arrivalLane="7to10_0" arrivalPos="100.00" arrivalSpeed="9.91" duration="59.00" routeLength="294.90" waitSteps="0" rerouteNo="2" devices="tripinfo_vid#60#1#10" vType="vtype1" vaporized=""/>
    <tripinfo id="vid#62#1#10" depart="318.00" departLane="1to4_0" departPos="5.10" departSpeed="0.00" departDelay="318.00" arrival="381.00" arrivalLane="7to10_0" arrivalPos="100.00" arrivalSpeed="9.89" duration="63.00" routeLength="294.90" waitSteps="0" rerouteNo="2" devices="tripinfo_vid#62#1#10" vType="vtype1" vaporized=""/>
    <tripinfo id="vid#63#1#10" depart="324.00" departLane="1to4_0" departPos="5.10" departSpeed="0.00" departDelay="324.00" arrival="384.00" arrivalLane="7to10_0" arrivalPos="100.00" arrivalSpeed="9.91" duration="60.00" routeLength="294.90" waitSteps="0" rerouteNo="2" devices="tripinfo_vid#63#1#10" vType="vtype1" vaporized=""/>
    <tripinfo id="vid#61#1#10" depart="313.00" departLane="1to4_0" departPos="5.10" departSpeed="0.00" departDelay="313.00" arrival="387.00" arrivalLane="8to10_0" arrivalPos="100.00" arrivalSpeed="9.80" duration="74.00" routeLength="294.90" waitSteps="0" rerouteNo="3" devices="tripinfo_vid#61#1#10" vType="vtype1" vaporized=""/>
    <tripinfo id="vid#64#1#10" depart="329.00" departLane="1to4_0" departPos="5.10" departSpeed="0.00" departDelay="329.00" arrival="388.00" arrivalLane="7to10_0" arrivalPos="100.00" arrivalSpeed="9.96" duration="59.00" routeLength="294.90" waitSteps="0" rerouteNo="2" devices="tripinfo_vid#64#1#10" vType="vtype1" vaporized=""/>
    <tripinfo id="vid#65#1#10" depart="334.00" departLane="1to4_0" departPos="5.10" departSpeed="0.00" departDelay="334.00" arrival="408.00" arrivalLane="9to10_0" arrivalPos="100.00" arrivalSpeed="9.79" duration="74.00" routeLength="294.90" waitSteps="0" rerouteNo="3" devices="tripinfo_vid#65#1#10" vType="vtype1" vaporized=""/>
    <tripinfo id="vid#69#1#10" depart="355.00" departLane="1to4_0" departPos="5.10" departSpeed="0.00" departDelay="355.00" arrival="416.00" arrivalLane="9to10_0" arrivalPos="100.00" arrivalSpeed="9.88" duration="61.00" routeLength="294.90" waitSteps="0" rerouteNo="2" devices="tripinfo_vid#69#1#10" vType="vtype1" vaporized=""/>
    <tripinfo id="vid#70#1#10" depart="360.00" departLane="1to4_0" departPos="5.10" departSpeed="0.00" departDelay="360.00" arrival="421.00" arrivalLane="9to10_0" arrivalPos="100.00" arrivalSpeed="9.72" duration="61.00" routeLength="294.90" waitSteps="0" rerouteNo="2" devices="tripinfo_vid#70#1#10" vType="vtype1" vaporized=""/>
    <tripinfo id="vid#71#1#10" depart="365.00" departLane="1to4_0" departPos="5.10" departSpeed="0.00" departDelay="365.00" arrival="425.00" arrivalLane="9to10_0" arrivalPos="100.00" arrivalSpeed="9.88" duration="60.00" routeLength="294.90" waitSteps="0" rerouteNo="2" devices="tripinfo_vid#71#1#10" vType="vtype1" vaporized=""/>
    <tripinfo id="vid#72#1#10" depart="370.00" departLane="1to4_0" departPos="5.10" departSpeed="0.00" departDelay="370.00" arrival="431.00" arrivalLane="8to10_0" arrivalPos="100.00" arrivalSpeed="9.66" duration="61.00" routeLength="294.90" waitSteps="0" rerouteNo="2" devices="tripinfo_vid#72#1#10" vType="vtype1" vaporized=""/>
    <tripinfo id="vid#75#1#10" depart="386.00" departLane="1to4_0" departPos="5.10" departSpeed="0.00" departDelay="386.00" arrival="434.00" arrivalLane="7to10_0" arrivalPos="100.00" arrivalSpeed="9.91" duration="48.00" routeLength="294.90" waitSteps="1" rerouteNo="1" devices="tripinfo_vid#75#1#10" vType="vtype1" vaporized=""/>
    <tripinfo id="vid#76#1#10" depart="391.00" departLane="1to4_0" departPos="5.10" departSpeed="0.00" departDelay="391.00" arrival="440.00" arrivalLane="7to10_0" arrivalPos="100.00" arrivalSpeed="9.96" duration="49.00" routeLength="294.90" waitSteps="1" rerouteNo="1" devices="tripinfo_vid#76#1#10" vType="vtype1" vaporized=""/>
    <tripinfo id="vid#77#1#10" depart="397.00" departLane="1to4_0" departPos="5.10" departSpeed="0.00" departDelay="397.00" arrival="444.00" arrivalLane="7to10_0" arrivalPos="100.00" arrivalSpeed="9.91" duration="47.00" routeLength="294.90" waitSteps="0" rerouteNo="1" devices="tripinfo_vid#77#1#10" vType="vtype1" vaporized=""/>
    <tripinfo id="vid#78#1#10" depart="402.00" departLane="1to4_0" departPos="5.10" departSpeed="0.00" departDelay="402.00" arrival="447.00" arrivalLane="7to10_0" arrivalPos="100.00" arrivalSpeed="9.68" duration="45.00" routeLength="294.90" waitSteps="0" rerouteNo="1" devices="tripinfo_vid#78#1#10" vType="vtype1" vaporized=""/>
    <tripinfo id="vid#66#1#10" depart="339.00" departLane="1to4_0" departPos="5.10" departSpeed="0.00" departDelay="339.00" arrival="448.00" arrivalLane="9to10_0" arrivalPos="100.00" arrivalSpeed="9.74" duration="109.00" routeLength="294.90" waitSteps="27" rerouteNo="3" devices="tripinfo_vid#66#1#10" vType="vtype1" vaporized=""/>
    <tripinfo id="vid#79#1#10" depart="407.00" departLane="1to4_0" departPos="5.10" departSpeed="0.00" departDelay="407.00" arrival="452.00" arrivalLane="7to10_0" arrivalPos="100.00" arrivalSpeed="9.73" duration="45.00" routeLength="294.90" waitSteps="0" rerouteNo="1" devices="tripinfo_vid#79#1#10" vType="vtype1" vaporized=""/>
    <tripinfo id="vid#67#1#10" depart="345.00" departLane="1to4_0" departPos="5.10" departSpeed="0.00" departDelay="345.00" arrival="452.00" arrivalLane="9to10_0" arrivalPos="100.00" arrivalSpeed="9.98" duration="107.00" routeLength="294.90" waitSteps="21" rerouteNo="3" devices="tripinfo_vid#67#1#10" vType="vtype1" vaporized=""/>
    <tripinfo id="vid#68#1#10" depart="350.00" departLane="1to4_0" departPos="5.10" departSpeed="0.00" departDelay="350.00" arrival="454.00" arrivalLane="9to10_0" arrivalPos="100.00" arrivalSpeed="9.85" duration="104.00" routeLength="294.90" waitSteps="16" rerouteNo="3" devices="tripinfo_vid#68#1#10" vType="vtype1" vaporized=""/>
    <tripinfo id="vid#73#1#10" depart="376.00" departLane="1to4_0" departPos="5.10" departSpeed="0.00" departDelay="376.00" arrival="458.00" arrivalLane="8to10_0" arrivalPos="100.00" arrivalSpeed="9.71" duration="82.00" routeLength="294.90" waitSteps="0" rerouteNo="3" devices="tripinfo_vid#73#1#10" vType="vtype1" vaporized=""/>
    <tripinfo id="vid#80#1#10" depart="412.00" departLane="1to4_0" departPos="5.10" departSpeed="0.00" departDelay="412.00" arrival="459.00" arrivalLane="7to10_0" arrivalPos="100.00" arrivalSpeed="9.80" duration="47.00" routeLength="294.90" waitSteps="0" rerouteNo="1" devices="tripinfo_vid#80#1#10" vType="vtype1" vaporized=""/>
    <tripinfo id="vid#74#1#10" depart="381.00" departLane="1to4_0" departPos="5.10" departSpeed="0.00" departDelay="381.00" arrival="461.00" arrivalLane="9to10_0" arrivalPos="100.00" arrivalSpeed="9.82" duration="80.00" routeLength="294.90" waitSteps="0" rerouteNo="3" devices="tripinfo_vid#74#1#10" vType="vtype1" vaporized=""/>
    <tripinfo id="vid#82#1#10" depart="422.00" departLane="1to4_0" departPos="5.10" departSpeed="0.00" departDelay="422.00" arrival="469.00" arrivalLane="7to10_0" arrivalPos="100.00" arrivalSpeed="9.69" duration="47.00" routeLength="294.90" waitSteps="0" rerouteNo="1" devices="tripinfo_vid#82#1#10" vType="vtype1" vaporized=""/>
    <tripinfo id="vid#83#1#10" depart="428.00" departLane="1to4_0" departPos="5.10" departSpeed="0.00" departDelay="428.00" arrival="474.00" arrivalLane="7to10_0" arrivalPos="100.00" arrivalSpeed="9.91" duration="46.00" routeLength="294.90" waitSteps="0" rerouteNo="1" devices="tripinfo_vid#83#1#10" vType="vtype1" vaporized=""/>
    <tripinfo id="vid#84#1#10" depart="433.00" departLane="1to4_0" departPos="5.10" departSpeed="0.00" departDelay="433.00" arrival="493.00" arrivalLane="8to10_0" arrivalPos="100.00" arrivalSpeed="9.95" duration="60.00" routeLength="294.90" waitSteps="0" rerouteNo="2" devices="tripinfo_vid#84#1#10" vType="vtype1" vaporized=""/>
    <tripinfo id="vid#87#1#10" depart="448.00" departLane="1to4_0" departPos="5.10" departSpeed="0.00" departDelay="448.00" arrival="494.00" arrivalLane="7to10_0" arrivalPos="100.00" arrivalSpeed="9.68" duration="46.00" routeLength="294.90" waitSteps="0" rerouteNo="1" devices="tripinfo_vid#87#1#10" vType="vtype1" vaporized=""/>
    <tripinfo id="vid#85#1#10" depart="438.00" departLane="1to4_0" departPos="5.10" departSpeed="0.00" departDelay="438.00" arrival="497.00" arrivalLane="9to10_0" arrivalPos="100.00" arrivalSpeed="9.71" duration="59.00" routeLength="294.90" waitSteps="0" rerouteNo="2" devices="tripinfo_vid#85#1#10" vType="vtype1" vaporized=""/>
    <tripinfo id="vid#81#1#10" depart="417.00" departLane="1to4_0" departPos="5.10" departSpeed="0.00" departDelay="417.00" arrival="501.00" arrivalLane="8to10_0" arrivalPos="100.00" arrivalSpeed="9.82" duration="84.00" routeLength="294.90" waitSteps="0" rerouteNo="3" devices="tripinfo_vid#81#1#10" vType="vtype1" vaporized=""/>
    <tripinfo id="vid#89#1#10" depart="458.00" departLane="1to4_0" departPos="5.10" departSpeed="0.00" departDelay="458.00" arrival="503.00" arrivalLane="7to10_0" arrivalPos="100.00" arrivalSpeed="9.99" duration="45.00" routeLength="294.90" waitSteps="0" rerouteNo="1" devices="tripinfo_vid#89#1#10" vType="vtype1" vaporized=""/>