<?xml version="1.0" encoding="UTF-8"?>

<!-- generated on Monday 23 January 2017 01:48:19 AM IST by SUMO gui Version 0.19.0
<?xml version="1.0" encoding="UTF-8"?>

<configuration xmlns:xsi="http://www.w3.org/2001/XMLSchema-instance" xsi:noNamespaceSchemaLocation="http://sumo-sim.org/xsd/sumo-gui.exeConfiguration.xsd">

    <input>
        <net-file value="bangalore.net.xml"/>
    </input>

    <output>
        <tripinfo-output value="Bangalore-simtripinfo.xml"/>
        <save-state.prefix value="state"/>
    </output>

    <time>
        <begin value="0"/>
    </time>

    <report>
        <verbose value="true"/>
        <no-step-log value="true"/>
    </report>

    <traci_server>
        <remote-port value="35247"/>
    </traci_server>

    <gui_only>
        <gui-settings-file value="bangalore.settings.xml"/>
    </gui_only>

</configuration>
-->

<tripinfos>
</tripinfos>
